#!/bin/sh
# Forces a checkout.

#git --work-tree=/home/public --git-dir=/home/protected/deploy.git checkout -f
